<?xml version="1.0" encoding="UTF-8"?>

<!-- generated on 2023-05-13 15:17:00 by Eclipse SUMO GUI Version 1.16.0
<configuration xmlns:xsi="http://www.w3.org/2001/XMLSchema-instance" xsi:noNamespaceSchemaLocation="http://sumo.dlr.de/xsd/sumoConfiguration.xsd">

    <input>
        <net-file value="sumo/net.net.xml"/>
        <route-files value="sumo/routes.rou.xml,sumo/flows.rou.xml"/>
        <additional-files value="sumo/additional.xml"/>
    </input>

    <output>
        <fcd-output value="sumo/fcd.xml"/>
        <tripinfo-output value="tripinfo_1.xml"/>
    </output>

    <time>
        <begin value="0"/>
        <end value="600"/>
    </time>

    <traci_server>
        <remote-port value="8873"/>
    </traci_server>

</configuration>
-->

<tripinfos xmlns:xsi="http://www.w3.org/2001/XMLSchema-instance" xsi:noNamespaceSchemaLocation="http://sumo.dlr.de/xsd/tripinfo_file.xsd">
    <tripinfo id="15" depart="15.00" departLane="344175967#8_0" departPos="5.10" departSpeed="0.00" departDelay="0.00" arrival="81.00" arrivalLane="187195973#6_1" arrivalPos="161.57" arrivalSpeed="10.08" duration="66.00" routeLength="668.45" waitingTime="0.00" waitingCount="0" stopTime="0.00" timeLoss="11.20" rerouteNo="0" devices="tripinfo_15 fcd_15" vType="DEFAULT_VEHTYPE" speedFactor="0.99" vaporized=""/>
    <tripinfo id="31" depart="31.00" departLane="119524849#2_0" departPos="5.10" departSpeed="0.00" departDelay="0.00" arrival="97.00" arrivalLane="186793702#2_0" arrivalPos="45.81" arrivalSpeed="15.86" duration="66.00" routeLength="1022.21" waitingTime="0.00" waitingCount="0" stopTime="0.00" timeLoss="18.37" rerouteNo="0" devices="tripinfo_31 fcd_31" vType="DEFAULT_VEHTYPE" speedFactor="1.18" vaporized=""/>
    <tripinfo id="60" depart="60.00" departLane="317310792#2_0" departPos="5.10" departSpeed="0.00" departDelay="0.00" arrival="109.00" arrivalLane="119442054#2_0" arrivalPos="103.74" arrivalSpeed="13.27" duration="49.00" routeLength="492.05" waitingTime="0.00" waitingCount="0" stopTime="0.00" timeLoss="11.32" rerouteNo="0" devices="tripinfo_60 fcd_60" vType="DEFAULT_VEHTYPE" speedFactor="0.97" vaporized=""/>
    <tripinfo id="50" depart="50.00" departLane="-1098666083#1_0" departPos="5.10" departSpeed="0.00" departDelay="0.00" arrival="135.00" arrivalLane="187076739_0" arrivalPos="71.54" arrivalSpeed="11.80" duration="85.00" routeLength="711.71" waitingTime="0.00" waitingCount="0" stopTime="0.00" timeLoss="17.77" rerouteNo="0" devices="tripinfo_50 fcd_50" vType="DEFAULT_VEHTYPE" speedFactor="0.85" vaporized=""/>
    <tripinfo id="23" depart="23.00" departLane="-119442093#1_0" departPos="5.10" departSpeed="0.00" departDelay="0.00" arrival="145.00" arrivalLane="-315553406#9_0" arrivalPos="99.72" arrivalSpeed="19.45" duration="122.00" routeLength="1376.17" waitingTime="0.00" waitingCount="0" stopTime="0.00" timeLoss="37.06" rerouteNo="0" devices="tripinfo_23 fcd_23" vType="DEFAULT_VEHTYPE" speedFactor="0.97" vaporized=""/>
    <tripinfo id="39" depart="39.00" departLane="-187076737#0_0" departPos="5.10" departSpeed="0.00" departDelay="0.00" arrival="151.00" arrivalLane="-187076622#3_0" arrivalPos="49.38" arrivalSpeed="14.10" duration="112.00" routeLength="1264.97" waitingTime="0.00" waitingCount="0" stopTime="0.00" timeLoss="22.64" rerouteNo="0" devices="tripinfo_39 fcd_39" vType="DEFAULT_VEHTYPE" speedFactor="1.10" vaporized=""/>
    <tripinfo id="49" depart="49.00" departLane="68554775#0_0" departPos="5.10" departSpeed="0.00" departDelay="0.00" arrival="151.00" arrivalLane="550165813#4_1" arrivalPos="145.90" arrivalSpeed="11.54" duration="102.00" routeLength="978.79" waitingTime="0.00" waitingCount="0" stopTime="0.00" timeLoss="12.63" rerouteNo="0" devices="tripinfo_49 fcd_49" vType="DEFAULT_VEHTYPE" speedFactor="0.88" vaporized=""/>
    <tripinfo id="45" depart="45.00" departLane="-119524843#1_0" departPos="5.10" departSpeed="0.00" departDelay="0.00" arrival="160.00" arrivalLane="119562311#0_0" arrivalPos="98.21" arrivalSpeed="13.95" duration="115.00" routeLength="1698.92" waitingTime="0.00" waitingCount="0" stopTime="0.00" timeLoss="26.56" rerouteNo="0" devices="tripinfo_45 fcd_45" vType="DEFAULT_VEHTYPE" speedFactor="1.04" vaporized=""/>
    <tripinfo id="138" depart="138.00" departLane="-119524835#1_0" departPos="5.10" departSpeed="0.00" departDelay="0.00" arrival="164.00" arrivalLane="119524822_0" arrivalPos="99.23" arrivalSpeed="16.37" duration="26.00" routeLength="235.37" waitingTime="0.00" waitingCount="0" stopTime="0.00" timeLoss="10.26" rerouteNo="0" devices="tripinfo_138 fcd_138" vType="DEFAULT_VEHTYPE" speedFactor="1.23" vaporized=""/>
    <tripinfo id="125" depart="125.00" departLane="-437843102_0" departPos="4.28" departSpeed="0.00" departDelay="0.00" arrival="166.00" arrivalLane="316471801#13_0" arrivalPos="89.45" arrivalSpeed="12.64" duration="41.00" routeLength="482.99" waitingTime="0.00" waitingCount="0" stopTime="0.00" timeLoss="5.17" rerouteNo="0" devices="tripinfo_125 fcd_125" vType="DEFAULT_VEHTYPE" speedFactor="1.10" vaporized=""/>
    <tripinfo id="59" depart="59.00" departLane="119562255_0" departPos="5.10" departSpeed="0.00" departDelay="0.00" arrival="168.00" arrivalLane="-119562234#0_0" arrivalPos="37.45" arrivalSpeed="13.88" duration="109.00" routeLength="1181.86" waitingTime="0.00" waitingCount="0" stopTime="0.00" timeLoss="22.44" rerouteNo="0" devices="tripinfo_59 fcd_59" vType="DEFAULT_VEHTYPE" speedFactor="1.02" vaporized=""/>
    <tripinfo id="11" depart="11.00" departLane="-602687086#1_0" departPos="5.10" departSpeed="0.00" departDelay="0.00" arrival="171.00" arrivalLane="-119562240#3_0" arrivalPos="23.74" arrivalSpeed="11.82" duration="160.00" routeLength="2165.63" waitingTime="0.00" waitingCount="0" stopTime="0.00" timeLoss="41.79" rerouteNo="0" devices="tripinfo_11 fcd_11" vType="DEFAULT_VEHTYPE" speedFactor="1.09" vaporized=""/>
    <tripinfo id="81" depart="81.00" departLane="-186793700#1_0" departPos="5.10" departSpeed="0.00" departDelay="0.00" arrival="171.00" arrivalLane="68530970#5_0" arrivalPos="37.04" arrivalSpeed="14.36" duration="90.00" routeLength="1165.03" waitingTime="0.00" waitingCount="0" stopTime="0.00" timeLoss="27.13" rerouteNo="0" devices="tripinfo_81 fcd_81" vType="DEFAULT_VEHTYPE" speedFactor="1.09" vaporized=""/>
    <tripinfo id="123" depart="123.00" departLane="-186954329#3_0" departPos="5.10" departSpeed="0.00" departDelay="0.00" arrival="177.00" arrivalLane="-68551994#4_0" arrivalPos="83.88" arrivalSpeed="12.41" duration="54.00" routeLength="475.18" waitingTime="0.00" waitingCount="0" stopTime="0.00" timeLoss="14.06" rerouteNo="0" devices="tripinfo_123 fcd_123" vType="DEFAULT_VEHTYPE" speedFactor="0.94" vaporized=""/>
    <tripinfo id="34" depart="34.00" departLane="-437789630#2_0" departPos="5.10" departSpeed="0.00" departDelay="0.00" arrival="179.00" arrivalLane="-187195963_0" arrivalPos="107.98" arrivalSpeed="15.34" duration="145.00" routeLength="1884.97" waitingTime="0.00" waitingCount="0" stopTime="0.00" timeLoss="35.88" rerouteNo="0" devices="tripinfo_34 fcd_34" vType="DEFAULT_VEHTYPE" speedFactor="1.17" vaporized=""/>
    <tripinfo id="20" depart="20.00" departLane="187076640#0_0" departPos="5.10" departSpeed="0.00" departDelay="0.00" arrival="186.00" arrivalLane="-116953579#0_0" arrivalPos="89.49" arrivalSpeed="15.72" duration="166.00" routeLength="2010.85" waitingTime="0.00" waitingCount="0" stopTime="0.00" timeLoss="35.36" rerouteNo="0" devices="tripinfo_20 fcd_20" vType="DEFAULT_VEHTYPE" speedFactor="1.16" vaporized=""/>
    <tripinfo id="33" depart="33.00" departLane="-186793700#2_0" departPos="5.10" departSpeed="0.00" departDelay="0.00" arrival="189.00" arrivalLane="-116948964#0_0" arrivalPos="56.69" arrivalSpeed="13.30" duration="156.00" routeLength="1593.17" waitingTime="6.00" waitingCount="1" stopTime="0.00" timeLoss="42.95" rerouteNo="0" devices="tripinfo_33 fcd_33" vType="DEFAULT_VEHTYPE" speedFactor="1.01" vaporized=""/>
    <tripinfo id="13" depart="13.00" departLane="-119442055_0" departPos="5.10" departSpeed="0.00" departDelay="0.00" arrival="199.00" arrivalLane="-119442092#2_0" arrivalPos="24.25" arrivalSpeed="14.51" duration="186.00" routeLength="2118.59" waitingTime="0.00" waitingCount="0" stopTime="0.00" timeLoss="25.55" rerouteNo="0" devices="tripinfo_13 fcd_13" vType="DEFAULT_VEHTYPE" speedFactor="1.05" vaporized=""/>
    <tripinfo id="16" depart="16.00" departLane="119442054#6_0" departPos="5.10" departSpeed="0.00" departDelay="0.00" arrival="199.00" arrivalLane="68556487#1_0" arrivalPos="43.42" arrivalSpeed="12.84" duration="183.00" routeLength="1874.81" waitingTime="2.00" waitingCount="1" stopTime="0.00" timeLoss="43.34" rerouteNo="0" devices="tripinfo_16 fcd_16" vType="DEFAULT_VEHTYPE" speedFactor="0.93" vaporized=""/>
    <tripinfo id="68" depart="68.00" departLane="-119441948#5_0" departPos="5.10" departSpeed="0.00" departDelay="0.00" arrival="200.00" arrivalLane="316476715#11_0" arrivalPos="61.58" arrivalSpeed="24.96" duration="132.00" routeLength="1558.01" waitingTime="0.00" waitingCount="0" stopTime="0.00" timeLoss="26.02" rerouteNo="0" devices="tripinfo_68 fcd_68" vType="DEFAULT_VEHTYPE" speedFactor="0.91" vaporized=""/>
    <tripinfo id="3" depart="3.00" departLane="68526688#4_0" departPos="5.10" departSpeed="0.00" departDelay="0.00" arrival="210.00" arrivalLane="-119442054#0_0" arrivalPos="139.78" arrivalSpeed="13.92" duration="207.00" routeLength="2318.11" waitingTime="17.00" waitingCount="1" stopTime="0.00" timeLoss="50.61" rerouteNo="0" devices="tripinfo_3 fcd_3" vType="DEFAULT_VEHTYPE" speedFactor="1.08" vaporized=""/>
    <tripinfo id="44" depart="44.00" departLane="-119442054#12_0" departPos="5.10" departSpeed="0.00" departDelay="0.00" arrival="210.00" arrivalLane="-116953585#6_0" arrivalPos="37.92" arrivalSpeed="12.98" duration="166.00" routeLength="1788.46" waitingTime="0.00" waitingCount="0" stopTime="0.00" timeLoss="43.48" rerouteNo="0" devices="tripinfo_44 fcd_44" vType="DEFAULT_VEHTYPE" speedFactor="1.04" vaporized=""/>
    <tripinfo id="4" depart="4.00" departLane="-864183426#1_0" departPos="5.10" departSpeed="0.00" departDelay="0.00" arrival="211.00" arrivalLane="-116948944#1_0" arrivalPos="13.54" arrivalSpeed="8.98" duration="207.00" routeLength="2257.01" waitingTime="0.00" waitingCount="0" stopTime="0.00" timeLoss="44.63" rerouteNo="0" devices="tripinfo_4 fcd_4" vType="DEFAULT_VEHTYPE" speedFactor="1.03" vaporized=""/>
    <tripinfo id="137" depart="137.00" departLane="-119537589#3_0" departPos="5.10" departSpeed="0.00" departDelay="0.00" arrival="211.00" arrivalLane="-119524880_0" arrivalPos="80.08" arrivalSpeed="13.46" duration="74.00" routeLength="824.72" waitingTime="2.00" waitingCount="1" stopTime="0.00" timeLoss="20.60" rerouteNo="0" devices="tripinfo_137 fcd_137" vType="DEFAULT_VEHTYPE" speedFactor="1.04" vaporized=""/>
    <tripinfo id="28" depart="28.00" departLane="-119562286#0_0" departPos="5.10" departSpeed="0.00" departDelay="0.00" arrival="212.00" arrivalLane="187195973#5_0" arrivalPos="144.14" arrivalSpeed="9.91" duration="184.00" routeLength="2404.49" waitingTime="0.00" waitingCount="0" stopTime="0.00" timeLoss="43.11" rerouteNo="0" devices="tripinfo_28 fcd_28" vType="DEFAULT_VEHTYPE" speedFactor="0.95" vaporized=""/>
    <tripinfo id="10" depart="10.00" departLane="344175967#2_0" departPos="5.10" departSpeed="0.00" departDelay="0.00" arrival="213.00" arrivalLane="186954381_0" arrivalPos="113.81" arrivalSpeed="11.19" duration="203.00" routeLength="1902.95" waitingTime="6.00" waitingCount="1" stopTime="0.00" timeLoss="43.23" rerouteNo="0" devices="tripinfo_10 fcd_10" vType="DEFAULT_VEHTYPE" speedFactor="0.86" vaporized=""/>
    <tripinfo id="37" depart="37.00" departLane="163830869_0" departPos="5.10" departSpeed="0.00" departDelay="0.00" arrival="214.00" arrivalLane="-68551994#3_0" arrivalPos="41.52" arrivalSpeed="12.78" duration="177.00" routeLength="2016.67" waitingTime="0.00" waitingCount="0" stopTime="0.00" timeLoss="37.93" rerouteNo="0" devices="tripinfo_37 fcd_37" vType="DEFAULT_VEHTYPE" speedFactor="0.97" vaporized=""/>
    <tripinfo id="22" depart="22.00" departLane="-119441978#2_0" departPos="5.10" departSpeed="0.00" departDelay="0.00" arrival="217.00" arrivalLane="-186793793_0" arrivalPos="24.52" arrivalSpeed="9.98" duration="195.00" routeLength="2826.82" waitingTime="2.00" waitingCount="1" stopTime="0.00" timeLoss="49.12" rerouteNo="0" devices="tripinfo_22 fcd_22" vType="DEFAULT_VEHTYPE" speedFactor="1.01" vaporized=""/>
    <tripinfo id="73" depart="73.00" departLane="119442067_0" departPos="5.10" departSpeed="0.00" departDelay="0.00" arrival="217.00" arrivalLane="187195973#8_0" arrivalPos="139.49" arrivalSpeed="9.85" duration="144.00" routeLength="1451.27" waitingTime="0.00" waitingCount="0" stopTime="0.00" timeLoss="26.14" rerouteNo="0" devices="tripinfo_73 fcd_73" vType="DEFAULT_VEHTYPE" speedFactor="0.94" vaporized=""/>
    <tripinfo id="14" depart="14.00" departLane="437671317_0" departPos="5.10" departSpeed="0.00" departDelay="0.00" arrival="220.00" arrivalLane="119562193#2_0" arrivalPos="24.16" arrivalSpeed="14.42" duration="206.00" routeLength="3550.34" waitingTime="0.00" waitingCount="0" stopTime="0.00" timeLoss="33.28" rerouteNo="0" devices="tripinfo_14 fcd_14" vType="DEFAULT_VEHTYPE" speedFactor="1.12" vaporized=""/>
    <tripinfo id="58" depart="58.00" departLane="-429310064#1_0" departPos="5.10" departSpeed="0.00" departDelay="0.00" arrival="224.00" arrivalLane="119573418#3_0" arrivalPos="140.29" arrivalSpeed="15.60" duration="166.00" routeLength="2063.09" waitingTime="1.00" waitingCount="1" stopTime="0.00" timeLoss="42.86" rerouteNo="0" devices="tripinfo_58 fcd_58" vType="DEFAULT_VEHTYPE" speedFactor="1.14" vaporized=""/>
    <tripinfo id="101" depart="101.00" departLane="437789628#0_0" departPos="5.10" departSpeed="0.00" departDelay="0.00" arrival="224.00" arrivalLane="-119562285#0_0" arrivalPos="21.69" arrivalSpeed="11.37" duration="123.00" routeLength="1601.98" waitingTime="0.00" waitingCount="0" stopTime="0.00" timeLoss="24.05" rerouteNo="0" devices="tripinfo_101 fcd_101" vType="DEFAULT_VEHTYPE" speedFactor="1.12" vaporized=""/>
    <tripinfo id="19" depart="19.00" departLane="550166693#8_0" departPos="5.10" departSpeed="0.00" departDelay="0.00" arrival="225.00" arrivalLane="119537548#0_0" arrivalPos="11.27" arrivalSpeed="7.34" duration="206.00" routeLength="2460.37" waitingTime="0.00" waitingCount="0" stopTime="0.00" timeLoss="38.97" rerouteNo="0" devices="tripinfo_19 fcd_19" vType="DEFAULT_VEHTYPE" speedFactor="0.94" vaporized=""/>
    <tripinfo id="80" depart="80.00" departLane="-119441963#0_0" departPos="5.10" departSpeed="0.00" departDelay="0.00" arrival="232.00" arrivalLane="119562321#0_0" arrivalPos="34.47" arrivalSpeed="13.50" duration="152.00" routeLength="2175.45" waitingTime="0.00" waitingCount="0" stopTime="0.00" timeLoss="36.75" rerouteNo="0" devices="tripinfo_80 fcd_80" vType="DEFAULT_VEHTYPE" speedFactor="1.01" vaporized=""/>
    <tripinfo id="143" depart="143.00" departLane="437650871#3_0" departPos="5.10" departSpeed="0.00" departDelay="0.00" arrival="233.00" arrivalLane="-119442074#1_0" arrivalPos="91.49" arrivalSpeed="1.39" duration="90.00" routeLength="501.64" waitingTime="0.00" waitingCount="0" stopTime="0.00" timeLoss="22.08" rerouteNo="0" devices="tripinfo_143 fcd_143" vType="DEFAULT_VEHTYPE" speedFactor="0.95" vaporized=""/>
    <tripinfo id="21" depart="21.00" departLane="-186793696#0_0" departPos="5.10" departSpeed="0.00" departDelay="0.00" arrival="237.00" arrivalLane="-428624429#5_0" arrivalPos="185.35" arrivalSpeed="10.64" duration="216.00" routeLength="2509.47" waitingTime="0.00" waitingCount="0" stopTime="0.00" timeLoss="27.40" rerouteNo="0" devices="tripinfo_21 fcd_21" vType="DEFAULT_VEHTYPE" speedFactor="1.02" vaporized=""/>
    <tripinfo id="35" depart="35.00" departLane="-163830875#0_0" departPos="5.10" departSpeed="0.00" departDelay="0.00" arrival="238.00" arrivalLane="68540187#2_0" arrivalPos="46.77" arrivalSpeed="13.09" duration="203.00" routeLength="2531.01" waitingTime="0.00" waitingCount="0" stopTime="0.00" timeLoss="36.89" rerouteNo="0" devices="tripinfo_35 fcd_35" vType="DEFAULT_VEHTYPE" speedFactor="0.99" vaporized=""/>
    <tripinfo id="52" depart="52.00" departLane="-187195942#4_0" departPos="5.10" departSpeed="0.00" departDelay="0.00" arrival="238.00" arrivalLane="119573442_0" arrivalPos="142.42" arrivalSpeed="15.16" duration="186.00" routeLength="2438.90" waitingTime="0.00" waitingCount="0" stopTime="0.00" timeLoss="35.94" rerouteNo="0" devices="tripinfo_52 fcd_52" vType="DEFAULT_VEHTYPE" speedFactor="1.17" vaporized=""/>
    <tripinfo id="102" depart="102.00" departLane="116953598_0" departPos="5.10" departSpeed="0.00" departDelay="0.00" arrival="240.00" arrivalLane="-186174860#2_0" arrivalPos="37.80" arrivalSpeed="12.66" duration="138.00" routeLength="1445.96" waitingTime="0.00" waitingCount="0" stopTime="0.00" timeLoss="34.12" rerouteNo="0" devices="tripinfo_102 fcd_102" vType="DEFAULT_VEHTYPE" speedFactor="1.10" vaporized=""/>
    <tripinfo id="72" depart="72.00" departLane="-884935261_0" departPos="5.10" departSpeed="0.00" departDelay="0.00" arrival="242.00" arrivalLane="-173986883#6_0" arrivalPos="100.31" arrivalSpeed="13.22" duration="170.00" routeLength="2060.32" waitingTime="0.00" waitingCount="0" stopTime="0.00" timeLoss="37.88" rerouteNo="0" devices="tripinfo_72 fcd_72" vType="DEFAULT_VEHTYPE" speedFactor="0.97" vaporized=""/>
    <tripinfo id="76" depart="76.00" departLane="1096354535_0" departPos="5.10" departSpeed="0.00" departDelay="0.00" arrival="244.00" arrivalLane="119441964#6_0" arrivalPos="43.21" arrivalSpeed="20.39" duration="168.00" routeLength="1554.49" waitingTime="0.00" waitingCount="0" stopTime="0.00" timeLoss="28.73" rerouteNo="0" devices="tripinfo_76 fcd_76" vType="DEFAULT_VEHTYPE" speedFactor="0.96" vaporized=""/>
    <tripinfo id="77" depart="77.00" departLane="-119537526#0_0" departPos="5.10" departSpeed="0.00" departDelay="0.00" arrival="246.00" arrivalLane="-186793691#1_0" arrivalPos="38.08" arrivalSpeed="13.19" duration="169.00" routeLength="1945.94" waitingTime="0.00" waitingCount="0" stopTime="0.00" timeLoss="40.82" rerouteNo="0" devices="tripinfo_77 fcd_77" vType="DEFAULT_VEHTYPE" speedFactor="0.98" vaporized=""/>
    <tripinfo id="7" depart="7.00" departLane="119742029#0_0" departPos="5.10" departSpeed="0.00" departDelay="0.00" arrival="247.00" arrivalLane="119442075#1_0" arrivalPos="41.21" arrivalSpeed="12.30" duration="240.00" routeLength="2509.20" waitingTime="0.00" waitingCount="0" stopTime="0.00" timeLoss="38.64" rerouteNo="0" devices="tripinfo_7 fcd_7" vType="DEFAULT_VEHTYPE" speedFactor="0.89" vaporized=""/>
    <tripinfo id="179" depart="179.00" departLane="-119524839#2_0" departPos="5.10" departSpeed="0.00" departDelay="0.00" arrival="247.00" arrivalLane="1042491115#0_0" arrivalPos="34.21" arrivalSpeed="10.96" duration="68.00" routeLength="755.16" waitingTime="0.00" waitingCount="0" stopTime="0.00" timeLoss="20.48" rerouteNo="0" devices="tripinfo_179 fcd_179" vType="DEFAULT_VEHTYPE" speedFactor="0.92" vaporized=""/>
    <tripinfo id="26" depart="26.00" departLane="-187195942#5_0" departPos="5.10" departSpeed="0.00" departDelay="0.00" arrival="250.00" arrivalLane="68540181#4_0" arrivalPos="151.39" arrivalSpeed="10.86" duration="224.00" routeLength="2229.28" waitingTime="0.00" waitingCount="0" stopTime="0.00" timeLoss="32.67" rerouteNo="0" devices="tripinfo_26 fcd_26" vType="DEFAULT_VEHTYPE" speedFactor="0.87" vaporized=""/>
    <tripinfo id="subway_L1:0.0" depart="0.00" departLane="550454234_0" departPos="109.60" departSpeed="0.00" departDelay="0.00" arrival="251.00" arrivalLane="543026867_0" arrivalPos="183.35" arrivalSpeed="1.00" duration="251.00" routeLength="2936.40" waitingTime="0.00" waitingCount="0" stopTime="90.00" timeLoss="55.25" rerouteNo="0" devices="tripinfo_subway_L1:0.0 fcd_subway_L1:0.0" vType="subway" speedFactor="1.00" vaporized=""/>
    <tripinfo id="54" depart="54.00" departLane="1152775342_0" departPos="5.10" departSpeed="0.00" departDelay="0.00" arrival="256.00" arrivalLane="68551945#0_0" arrivalPos="38.32" arrivalSpeed="15.08" duration="202.00" routeLength="2910.46" waitingTime="0.00" waitingCount="0" stopTime="0.00" timeLoss="37.43" rerouteNo="0" devices="tripinfo_54 fcd_54" vType="DEFAULT_VEHTYPE" speedFactor="1.10" vaporized=""/>
    <tripinfo id="subway_L1:1.0" depart="0.00" departLane="551979096_0" departPos="109.60" departSpeed="0.00" departDelay="0.00" arrival="257.00" arrivalLane="550454240_0" arrivalPos="516.17" arrivalSpeed="27.78" duration="257.00" routeLength="2940.92" waitingTime="0.00" waitingCount="0" stopTime="90.00" timeLoss="60.18" rerouteNo="0" devices="tripinfo_subway_L1:1.0 fcd_subway_L1:1.0" vType="subway" speedFactor="1.00" vaporized=""/>
    <tripinfo id="5" depart="5.00" departLane="-186174860#3_0" departPos="5.10" departSpeed="0.00" departDelay="0.00" arrival="261.00" arrivalLane="116992040#0_0" arrivalPos="46.58" arrivalSpeed="10.36" duration="256.00" routeLength="2356.42" waitingTime="2.00" waitingCount="1" stopTime="0.00" timeLoss="40.27" rerouteNo="0" devices="tripinfo_5 fcd_5" vType="DEFAULT_VEHTYPE" speedFactor="0.83" vaporized=""/>
    <tripinfo id="85" depart="85.00" departLane="68540183#16_0" departPos="5.10" departSpeed="0.00" departDelay="0.00" arrival="264.00" arrivalLane="119524882#0_0" arrivalPos="76.73" arrivalSpeed="17.08" duration="179.00" routeLength="2049.80" waitingTime="5.00" waitingCount="1" stopTime="0.00" timeLoss="50.43" rerouteNo="0" devices="tripinfo_85 fcd_85" vType="DEFAULT_VEHTYPE" speedFactor="1.02" vaporized=""/>
    <tripinfo id="87" depart="87.00" departLane="344175967#9_0" departPos="5.10" departSpeed="0.00" departDelay="0.00" arrival="264.00" arrivalLane="-119622383#0_0" arrivalPos="656.26" arrivalSpeed="25.02" duration="177.00" routeLength="2406.87" waitingTime="25.00" waitingCount="1" stopTime="0.00" timeLoss="56.64" rerouteNo="0" devices="tripinfo_87 fcd_87" vType="DEFAULT_VEHTYPE" speedFactor="1.15" vaporized=""/>
    <tripinfo id="119" depart="119.00" departLane="119562180#5_0" departPos="5.10" departSpeed="0.00" departDelay="0.00" arrival="264.00" arrivalLane="119562272#6_0" arrivalPos="79.79" arrivalSpeed="15.12" duration="145.00" routeLength="1801.44" waitingTime="0.00" waitingCount="0" stopTime="0.00" timeLoss="28.23" rerouteNo="0" devices="tripinfo_119 fcd_119" vType="DEFAULT_VEHTYPE" speedFactor="1.18" vaporized=""/>
    <tripinfo id="53" depart="53.00" departLane="-119524849#1_0" departPos="5.10" departSpeed="0.00" departDelay="0.00" arrival="268.00" arrivalLane="1059459860#1_0" arrivalPos="77.64" arrivalSpeed="13.99" duration="215.00" routeLength="2403.75" waitingTime="0.00" waitingCount="0" stopTime="0.00" timeLoss="41.58" rerouteNo="0" devices="tripinfo_53 fcd_53" vType="DEFAULT_VEHTYPE" speedFactor="1.02" vaporized=""/>
    <tripinfo id="100" depart="100.00" departLane="68552091#1_0" departPos="5.10" departSpeed="0.00" departDelay="0.00" arrival="275.00" arrivalLane="68540154#2_0" arrivalPos="28.74" arrivalSpeed="11.81" duration="175.00" routeLength="1560.93" waitingTime="0.00" waitingCount="0" stopTime="0.00" timeLoss="38.01" rerouteNo="0" devices="tripinfo_100 fcd_100" vType="DEFAULT_VEHTYPE" speedFactor="0.91" vaporized=""/>
    <tripinfo id="111" depart="111.00" departLane="119442078#6_0" departPos="5.10" departSpeed="0.00" departDelay="0.00" arrival="276.00" arrivalLane="315553410#2_0" arrivalPos="110.22" arrivalSpeed="22.45" duration="165.00" routeLength="1636.22" waitingTime="13.00" waitingCount="1" stopTime="0.00" timeLoss="59.39" rerouteNo="0" devices="tripinfo_111 fcd_111" vType="DEFAULT_VEHTYPE" speedFactor="1.06" vaporized=""/>
    <tripinfo id="122" depart="122.00" departLane="-119742023#4_0" departPos="5.10" departSpeed="0.00" departDelay="0.00" arrival="277.00" arrivalLane="187076711#1_0" arrivalPos="21.73" arrivalSpeed="13.87" duration="155.00" routeLength="1834.55" waitingTime="3.00" waitingCount="1" stopTime="0.00" timeLoss="28.15" rerouteNo="0" devices="tripinfo_122 fcd_122" vType="DEFAULT_VEHTYPE" speedFactor="1.07" vaporized=""/>
    <tripinfo id="17" depart="17.00" departLane="-68540169#0_0" departPos="5.10" departSpeed="0.00" departDelay="0.00" arrival="280.00" arrivalLane="119524813_0" arrivalPos="114.76" arrivalSpeed="11.38" duration="263.00" routeLength="3067.16" waitingTime="3.00" waitingCount="1" stopTime="0.00" timeLoss="43.77" rerouteNo="0" devices="tripinfo_17 fcd_17" vType="DEFAULT_VEHTYPE" speedFactor="0.88" vaporized=""/>
    <tripinfo id="104" depart="104.00" departLane="-68540169#2_0" departPos="5.10" departSpeed="0.00" departDelay="0.00" arrival="281.00" arrivalLane="834755981_0" arrivalPos="63.53" arrivalSpeed="12.43" duration="177.00" routeLength="1875.58" waitingTime="0.00" waitingCount="0" stopTime="0.00" timeLoss="28.16" rerouteNo="0" devices="tripinfo_104 fcd_104" vType="DEFAULT_VEHTYPE" speedFactor="0.96" vaporized=""/>
    <tripinfo id="203" depart="203.00" departLane="-119442027#1_0" departPos="5.10" departSpeed="0.00" departDelay="0.00" arrival="282.00" arrivalLane="119441961#0_0" arrivalPos="117.45" arrivalSpeed="10.75" duration="79.00" routeLength="740.50" waitingTime="0.00" waitingCount="0" stopTime="0.00" timeLoss="23.47" rerouteNo="0" devices="tripinfo_203 fcd_203" vType="DEFAULT_VEHTYPE" speedFactor="0.83" vaporized=""/>
    <tripinfo id="142" depart="142.00" departLane="116953617#1_0" departPos="5.10" departSpeed="0.00" departDelay="0.00" arrival="284.00" arrivalLane="68530970#4_0" arrivalPos="39.60" arrivalSpeed="12.42" duration="142.00" routeLength="1431.86" waitingTime="0.00" waitingCount="0" stopTime="0.00" timeLoss="30.36" rerouteNo="0" devices="tripinfo_142 fcd_142" vType="DEFAULT_VEHTYPE" speedFactor="1.00" vaporized=""/>
    <tripinfo id="208" depart="208.00" departLane="-186954391#1_0" departPos="5.10" departSpeed="0.00" departDelay="0.00" arrival="286.00" arrivalLane="116948976_0" arrivalPos="97.27" arrivalSpeed="14.60" duration="78.00" routeLength="912.86" waitingTime="0.00" waitingCount="0" stopTime="0.00" timeLoss="11.92" rerouteNo="0" devices="tripinfo_208 fcd_208" vType="DEFAULT_VEHTYPE" speedFactor="1.07" vaporized=""/>
    <tripinfo id="46" depart="46.00" departLane="328620366#0_0" departPos="5.10" departSpeed="0.00" departDelay="0.00" arrival="292.00" arrivalLane="-885144203#0_0" arrivalPos="38.95" arrivalSpeed="14.34" duration="246.00" routeLength="2844.65" waitingTime="0.00" waitingCount="0" stopTime="0.00" timeLoss="65.48" rerouteNo="0" devices="tripinfo_46 fcd_46" vType="DEFAULT_VEHTYPE" speedFactor="1.09" vaporized=""/>
    <tripinfo id="97" depart="97.00" departLane="1098660745_0" departPos="5.10" departSpeed="0.00" departDelay="0.00" arrival="292.00" arrivalLane="550165814_0" arrivalPos="145.98" arrivalSpeed="11.63" duration="195.00" routeLength="2391.76" waitingTime="3.00" waitingCount="1" stopTime="0.00" timeLoss="33.09" rerouteNo="0" devices="tripinfo_97 fcd_97" vType="DEFAULT_VEHTYPE" speedFactor="1.09" vaporized=""/>
    <tripinfo id="165" depart="165.00" departLane="344353322#11_0" departPos="5.10" departSpeed="0.00" departDelay="0.00" arrival="293.00" arrivalLane="-187195951#0_0" arrivalPos="29.10" arrivalSpeed="13.85" duration="128.00" routeLength="1617.80" waitingTime="0.00" waitingCount="0" stopTime="0.00" timeLoss="24.23" rerouteNo="0" devices="tripinfo_165 fcd_165" vType="DEFAULT_VEHTYPE" speedFactor="1.08" vaporized=""/>
    <tripinfo id="47" depart="47.00" departLane="-116992055#2_0" departPos="5.10" departSpeed="0.00" departDelay="0.00" arrival="295.00" arrivalLane="-68540185_0" arrivalPos="184.26" arrivalSpeed="13.73" duration="248.00" routeLength="2806.53" waitingTime="15.00" waitingCount="1" stopTime="0.00" timeLoss="51.90" rerouteNo="0" devices="tripinfo_47 fcd_47" vType="DEFAULT_VEHTYPE" speedFactor="1.00" vaporized=""/>
    <tripinfo id="193" depart="193.00" departLane="-119537555#1_0" departPos="5.10" departSpeed="0.00" departDelay="0.00" arrival="295.00" arrivalLane="-882702119_0" arrivalPos="68.43" arrivalSpeed="13.41" duration="102.00" routeLength="1154.93" waitingTime="0.00" waitingCount="0" stopTime="0.00" timeLoss="20.67" rerouteNo="0" devices="tripinfo_193 fcd_193" vType="DEFAULT_VEHTYPE" speedFactor="0.97" vaporized=""/>
    <tripinfo id="75" depart="75.00" departLane="987149746#1_0" departPos="5.10" departSpeed="0.00" departDelay="0.00" arrival="298.00" arrivalLane="119622467#3_0" arrivalPos="26.42" arrivalSpeed="10.96" duration="223.00" routeLength="3194.34" waitingTime="6.00" waitingCount="1" stopTime="0.00" timeLoss="56.48" rerouteNo="0" devices="tripinfo_75 fcd_75" vType="DEFAULT_VEHTYPE" speedFactor="1.06" vaporized=""/>
</tripinfos>
